# vtk DataFile Version 4.2
vtk output
ASCII
DATASET POLYDATA
POINTS 1331 float
0.565997 -9.01873 -9.26657 0.184525 -7.57136 -9.2925 0.918485 -8.02295 -9.26466 
0.572106 -10.7282 -9.14859 -0.432425 -9.89342 -9.10264 0.961984 -9.98057 -9.14277 
-0.18441 -5.95769 -9.29005 0.311995 -6.00266 -9.32712 -1.00458 -6.97151 -9.21154 
0.855655 -6.03647 -9.26588 1.11725 -6.4503 -9.22406 1.5947 -7.51536 -9.14951 
-2.6759 -5.71366 -8.98346 -1.24536 -5.86455 -9.2305 -0.515885 -5.93113 -9.28819 
1.01123 -6.04814 -9.26156 -0.295517 -8.15545 -9.1572 1.96029 -6.1014 -9.1167 
2.06958 -6.10787 -9.10222 0.670548 -12.0453 -9.09352 1.11186 -13.2646 -9.10997 
0.564085 -13.9152 -9.10012 1.46216 -12.171 -9.08269 0.665611 -11.5139 -9.14848 
1.24253 -11.3309 -9.13083 0.34544 -17.9291 -9.13529 0.19155 -18.9035 -8.95584 
0.173147 -18.3772 -8.97497 -1.7029 -10.5204 -8.98415 -1.60438 -8.92214 -9.06095 
1.91394 -10.0997 -8.99902 1.52096 -9.06966 -9.1626 -2.82225 -5.69836 -8.95908 
-2.6928 -7.2192 -8.91053 2.09854 -6.10895 -9.0942 2.41711 -8.35288 -8.87381 
0.951835 -25.4987 -8.88892 0.751688 -25.4947 -8.96758 0.937631 -24.7606 -8.88666 
0.33788 -16.9752 -9.08315 1.0025 -17.1755 -8.90364 1.29256 -25.5362 -8.95859 
1.15685 -25.5246 -8.95284 0.630298 -25.4926 -9.01735 0.454979 -15.796 -9.05423 
-0.0558388 -15.9163 -8.87219 0.80613 -19.1509 -8.89941 0.538213 -25.4897 -9.04587 
0.530127 -24.7843 -9.01462 1.48107 -17.1529 -8.91455 0.557983 -24.0199 -8.97249 
1.56841 -25.5015 -9.02989 1.53385 -24.267 -9.05086 1.45208 -23.9124 -9.02013 
0.547078 -23.0766 -9.01004 0.408283 -14.7579 -9.12307 -0.249798 -14.4504 -8.99014 
0.650927 -14.3812 -9.06394 0.448794 -21.895 -9.03829 0.910983 -21.1967 -8.87061 
1.56423 -23.4333 -9.03207 1.46705 -22.3033 -8.96873 1.64654 -14.2192 -8.8863 
0.454067 -21.4121 -8.95652 0.464046 -20.2535 -9.07742 -0.51763 -13.1634 -8.97939 
-0.434192 -13.8621 -8.97047 -1.51613 -12.6457 -8.94626 -0.505943 -12.7378 -8.94322 
0.415411 -19.4047 -9.05864 1.51687 -13.4554 -8.89832 1.51876 -19.113 -8.8181 
-2.35178 -11.7135 -8.8134 -2.58968 -9.14285 -8.82895 -0.503784 -11.7566 -9.04923 
-0.256904 -10.7859 -9.05753 -2.83416 -10.3421 -8.72966 -3.19502 -8.59698 -8.74616 
2.52623 -12.2866 -8.71691 2.53672 -10.7197 -8.75514 2.94769 -9.51633 -8.71165 
3.35747 -7.64413 -8.67655 1.7831 -23.349 -8.54121 -1.41288 -21.466 -8.77307 
-0.373289 -21.1153 -8.8002 -0.32802 -22.5893 -8.77931 -0.0936784 -21.9392 -8.74583 
-0.10107 -21.4917 -8.69947 1.46543 -20.0885 -8.91374 -0.283878 -19.6072 -8.8274 
-1.30567 -17.727 -8.85172 -0.138894 -18.054 -8.75696 -0.250827 -25.3822 -8.74959 
-0.47744 -25.3654 -8.75733 -0.259867 -25.1773 -8.7606 -1.21701 -16.5697 -8.87206 
-0.223167 -17.0168 -8.81196 -1.60343 -23.1364 -8.73432 -0.360872 -23.787 -8.76599 
-1.56853 -23.8793 -8.7759 -1.42534 -15.2323 -8.88717 2.09597 -17.2659 -8.68533 
2.11547 -15.6192 -8.68068 -0.360051 -14.7861 -8.99285 -2.42952 -14.7757 -8.66969 
-2.30048 -13.3129 -8.77264 -0.380822 -15.7617 -8.79108 1.79851 -22.1216 -8.55178 
-3.25038 -9.32304 -8.6722 -0.935264 -19.9251 -8.86121 -0.277229 -20.4622 -8.76012 
1.88572 -19.8304 -8.70291 -1.51003 -20.1334 -8.7253 -1.71033 -19.6848 -8.70817 
-2.20302 -19.5827 -8.65199 -1.91428 -18.1917 -8.75201 -3.56739 -8.42059 -8.6176 
-4.30303 -7.76931 -8.4696 -2.50336 -18.7253 -8.63847 -2.42464 -18.2959 -8.6188 
-2.88686 -16.7158 -8.53663 -0.160326 -19.1696 -8.73641 2.13973 -6.11059 -9.08353 
3.58967 -6.16078 -8.65675 2.78821 -15.7444 -8.56844 -3.0736 -12.8473 -8.52395 
2.86725 -13.9679 -8.58833 -1.64084 -25.2713 -8.74504 -2.0124 -25.0345 -8.69222 
-1.57391 -25.278 -8.75457 -2.0283 -24.1651 -8.69046 -1.55455 -25.2801 -8.75796 
-3.02856 -11.6927 -8.57077 -1.31541 -25.2991 -8.75796 -0.25154 -25.3801 -8.73626 
-1.49937 -25.2847 -8.75966 -0.287219 -24.3575 -8.81053 1.67909 -25.3955 -8.82374 
1.83204 -24.0855 -8.49902 -1.68763 -21.8956 -8.70033 -0.184143 -23.3639 -8.72917 
-3.21567 -12.0786 -8.59184 -3.14395 -11.3073 -8.59002 -3.46869 -10.9735 -8.56135 
-4.03871 -10.0221 -8.3894 -3.68533 -9.33706 -8.52144 2.67199 -20.8668 -8.54333 
-4.38797 -6.91057 -8.32985 -4.37517 -5.88051 -8.45572 -3.15442 -5.65642 -8.85618 
-4.52394 -5.47659 -8.38647 3.82854 -9.70355 -8.41187 -2.94917 -24.1333 -8.33271 
-2.56043 -24.2356 -8.59669 -2.88595 -19.0713 -8.44146 -2.68982 -19.9065 -8.53444 
-2.66059 -17.7912 -8.57328 -3.0018 -16.9916 -8.40197 1.86178 -25.3411 -8.51888 
-3.12646 -14.8618 -8.45016 -3.16175 -13.6646 -8.5026 -3.0903 -13.3035 -8.48238 
-2.6547 -21.0732 -8.5267 -3.24913 -20.9724 -8.1137 3.82294 -13.284 -8.26595 
-3.92983 -11.0027 -8.49282 -4.16833 -8.80945 -8.54576 -4.40274 -8.01671 -8.32311 
-4.49229 -6.28441 -8.51391 4.55922 -8.30734 -8.07403 -2.97661 -24.8927 -8.22063 
2.54191 -25.5405 -8.54949 2.58766 -25.2743 -8.55092 2.49342 -23.0947 -8.53421 
2.98971 -23.6647 -8.38431 3.08608 -22.9597 -8.36683 -3.09871 -17.7111 -8.3387 
3.10521 -19.0999 -8.41266 -3.26917 -16.5031 -8.37426 -3.65215 -13.3825 -8.3649 
3.70632 -17.7184 -8.20638 -4.14951 -11.69 -8.40276 -4.09721 -12.0021 -8.3139 
-4.47284 -11.6323 -8.22733 -2.977 -22.3046 -8.27503 -3.04815 -21.5213 -8.20564 
-2.66376 -22.167 -8.50714 -2.55163 -21.6689 -8.53519 -4.52009 -10.0629 -8.28764 
-4.40906 -11.0222 -8.21309 -4.61431 -10.6399 -8.34609 -4.73624 -9.20593 -8.16694 
-4.44807 -8.59609 -8.21996 -4.58339 -9.00134 -8.33791 -4.58208 -7.45555 -8.31555 
-4.82876 -5.42095 -8.17903 3.2081 -22.0365 -8.35675 4.56207 -12.0601 -7.91764 
-3.74229 -19.2587 -8.44739 -3.84944 -17.9284 -8.42343 -3.78929 -18.681 -8.43192 
-4.16468 -17.2953 -8.08753 5.27341 -7.38552 -7.7956 -3.88351 -17.4176 -8.3803 
-3.66115 -16.4502 -8.42703 -3.94801 -15.728 -8.43411 -3.845 -14.831 -8.45144 
3.87243 -15.7057 -8.17874 -3.84673 -23.9079 -8.30319 -3.86048 -22.7596 -8.32826 
-3.43307 -23.3668 -8.3613 -3.17163 -22.9678 -8.26702 -2.92707 -23.6621 -8.27541 
-2.66475 -23.4368 -8.55738 -2.63838 -22.8202 -8.5296 -3.67145 -21.1862 -8.37656 
-4.43582 -21.5909 -7.95208 -4.14089 -19.7426 -8.09485 -4.6823 -11.9457 -8.08274 
-4.87717 -5.41374 -8.15679 -4.69392 -5.78535 -8.30098 3.26149 -21.7248 -8.31582 
4.66085 -11.9604 -7.8746 4.69403 -11.7077 -7.8725 4.84662 -9.31096 -7.84723 
4.79322 -10.7635 -7.85449 5.26106 -7.49567 -7.79471 -4.02897 -14.7124 -8.2943 
-4.6147 -14.4151 -8.07967 -3.99769 -13.8815 -8.31333 -4.46757 -13.6745 -8.09242 
-4.51563 -12.9544 -8.24362 -3.91266 -13.0294 -8.32294 -4.10309 -12.5967 -8.33996 
-4.57443 -12.3777 -8.07811 3.47607 -20.2468 -8.24055 3.59476 -19.3933 -8.21312 
-3.82973 -25.0316 -8.30868 -4.08754 -24.9855 -8.13947 -4.24086 -24.556 -8.04088 
3.78099 -18.0558 -8.16943 -4.33771 -22.376 -7.98521 -3.82274 -22.0861 -8.36703 
-4.84522 -9.83731 -7.96277 4.78391 -11.0708 -7.84802 -4.60856 -15.7796 -8.0997 
-4.57837 -15.0988 -8.0911 -4.35202 -24.9424 -7.99359 -4.36112 -24.9444 -8.01147 
-4.6829 -24.9095 -7.95014 -4.68849 -24.8585 -7.94989 -4.66509 -23.9725 -7.8904 
-4.66028 -23.1554 -7.94331 -4.68308 -22.6138 -8.01598 -4.7087 -19.9557 -7.92881 
-4.656 -20.9683 -7.9267 -4.56346 -19.0954 -7.98078 -4.72261 -18.4328 -7.9838 
-4.72604 -16.7108 -7.997 3.83138 -17.7316 -8.14273 4.09501 -15.8956 -8.05822 
3.85414 -17.5764 -8.13409 4.2102 -15.0861 -8.02413 4.40137 -13.7575 -7.96176 
4.59801 -12.4056 -7.89176 -5.16575 -9.1449 -7.85522 -5.20389 -9.78999 -7.67298 
4.82912 -10.7388 -7.84029 4.96976 -9.76418 -7.79328 5.20134 -7.99049 -7.78265 
-4.91089 -19.2328 -7.50524 5.02479 -9.41148 -7.76355 -4.9598 -15.8176 -7.62287 
4.62909 -12.1724 -7.8884 -4.95731 -24.8077 -7.42227 -4.78759 -24.8723 -7.75924 
-4.9641 -23.0656 -7.34864 -4.89331 -21.5636 -7.40169 -5.00655 -18.4224 -7.42904 
-5.0858 -17.1778 -7.37383 5.03636 -9.26125 -7.7874 5.06567 -9.15769 -7.73822 
-5.45911 -8.79485 -7.62356 -5.56109 -7.00093 -7.59619 -5.96471 -7.0705 -7.39486 
-5.52727 -6.3232 -7.65823 -4.98188 -24.7971 -7.36549 -4.91922 -23.973 -7.32672 
-4.86981 -22.6156 -7.35236 -5.02913 -20.8171 -7.32668 -4.8679 -19.8739 -7.39375 
-6.03663 -8.38346 -7.27549 -5.40646 -7.92276 -7.55866 -5.41603 -5.84803 -7.70383 
-5.39242 -5.31906 -7.80202 -6.25147 -5.17278 -7.28669 -6.26804 -5.17216 -7.27641 
-6.26671 -5.17015 -7.27737 -5.78689 -18.9856 -7.09128 -5.34984 -16.154 -7.32536 
-5.09703 -15.0518 -7.47958 -5.3156 -12.0047 -7.50406 -6.14491 -11.6921 -7.0524 
-5.25106 -11.3783 -7.53744 -5.40492 -10.895 -7.51152 -5.43292 -10.2066 -7.54317 
-5.76743 -16.9305 -7.13 -5.13415 -14.6777 -7.51974 -5.83447 -13.9614 -7.16104 
-5.19754 -14.0425 -7.46413 -5.41836 -13.2454 -7.46481 -5.46386 -12.5245 -7.41314 
-6.26934 -5.16966 -7.27548 -5.65416 -23.0753 -7.09715 -5.68519 -21.7725 -7.1619 
-5.12757 -20.0307 -7.35652 -6.9818 -5.62547 -6.66175 -5.57453 -24.7172 -7.14848 
-5.81966 -21.1587 -7.06665 -5.85131 -20.2048 -7.06432 -6.74742 -10.4171 -6.66208 
-5.75989 -24.6939 -7.09171 -5.85949 -23.7559 -7.03606 -5.90328 -17.9335 -7.03244 
-6.36277 -14.5114 -6.75777 -6.32515 -17.1278 -6.70022 -6.33457 -16.012 -6.7513 
-6.88315 -8.86487 -6.60636 -7.28709 -7.87034 -6.27212 -6.2934 -5.16471 -7.25546 
-6.29868 -16.6343 -6.76026 -6.95322 -13.1298 -6.33239 -7.42105 -11.8362 -5.90617 
-7.50843 -4.91545 -6.24741 -7.59624 -6.71079 -6.00886 -6.67419 -15.809 -6.41311 
-6.95261 -16.1504 -6.21298 -7.55858 -10.0476 -5.83602 -7.35446 -14.4261 -5.86659 
-7.98374 -5.8792 -5.61251 -7.64617 -4.88428 -6.11391 -6.82711 -20.2074 -6.204 
-6.95636 -20.6251 -6.06389 -7.49638 -21.0289 -5.48145 -7.09172 -20.045 -5.95772 
-8.22911 -8.23624 -5.22508 -6.83512 -18.4192 -6.22095 -7.56652 -18.6331 -5.45527 
-6.86677 -17.8533 -6.23411 -7.51978 -16.4003 -5.62974 -6.96077 -16.795 -6.21677 
-7.12628 -21.0148 -5.94013 -7.66455 -4.87868 -6.08662 -8.01952 -5.53457 -5.55935 
-8.06035 -4.77379 -5.60213 -7.84916 -19.9317 -4.98826 -6.96715 -19.1821 -6.14825 
-7.89874 -12.2285 -5.22577 -7.94857 -11.1766 -5.28342 -7.77192 -13.7921 -5.22308 
-7.8827 -9.70513 -5.39728 -8.14916 -7.65903 -5.39588 -8.16586 -6.30872 -5.26446 
-8.1373 -4.76447 -5.58087 -8.14104 -4.84301 -5.57419 -8.44081 -5.24082 -5.28179 
-7.79244 -15.021 -5.15139 -7.97142 -13.097 -5.15445 -7.75753 -16.5251 -5.15187 
[...]
POINT_DATA 1331
SCALARS scalars float
LOOKUP_TABLE default
-2.96203 -1.56135 -1.95328 -3.61802 -3.92671 -3.34255 0 5.55112e-17 -1.07511 
5.55112e-17 -0.393717 -1.41734 2.77556e-17 -5.55112e-17 1.11022e-16 5.55112e-17 -2.1948 2.77556e-17 
-2.77556e-17 -3.3821 -2.81245 -3.25355 -2.62293 -3.43441 -2.91746 -2.96183 -3.04388 
-3.11927 -4.66168 -3.06716 -2.47363 -2.91941 -4.16334e-17 -1.49618 -7.63278e-17 -2.21982 
0 0 -0.726054 -3.10079 -2.50422 -5.55112e-17 -5.55112e-17 2.77556e-17 -3.14229 
-3.66575 -2.45105 0 -0.689992 -2.05186 -1.43931 -5.55112e-17 -1.09651 -1.22617 
-2.18501 -3.29126 -3.99059 -3.1261 -2.41256 -2.11254 -1.17482 -1.42318 -2.26051 
-2.49132 -2.58545 -4.40295 -4.24211 -5.41851 -4.4547 -2.74017 -2.47195 -1.80792 
-5.91394 -3.39639 -4.53925 -4.4215 -4.61239 -2.91803 -1.71677 -1.88536 -1.65688 
-1.47727 -1.12913 -3.77274 -3.35631 -2.75127 -3.00904 -3.08457 -1.71048 -3.44665 
-4.63197 -3.51999 0 0 -0.20291 -4.68254 -3.70858 -2.1056 -1.56617 
-1.38234 -5.03691 -1.52808 -1.71102 -4.05307 -6.10699 -6.13118 -4.01618 -1.26036 
-3.64907 -4.01255 -3.35723 -1.40982 -4.57152 -4.82033 -5.31503 -5.18065 -2.79249 
-2.23016 -5.70679 -5.69064 -6.34401 -3.41109 -7.63278e-17 -5.55112e-17 -1.09526 -6.99382 
-1.23022 -6.93889e-18 -0.196512 -6.245e-17 -1.05193 6.93889e-18 -5.98256 -1.38778e-17 0 
-3.46945e-17 -1.01629 -5.55112e-17 -1.00648 -3.31695 -1.99152 -6.37442 -5.60884 -5.30953 
-4.44199 -3.71942 -0.590779 -1.41127 -0.376154 -1.38778e-17 -2.77556e-17 -0.894711 -0.957749 
-0.926758 -5.96844 -5.17437 -5.98861 -6.46035 5.55112e-17 -6.82181 -6.98437 -6.96697 
-4.026 -4.01714 -0.5101 -5.38458 -3.23348 -2.50371 -0.774715 -0.478213 -0.190356 
1.38778e-17 -1.38778e-17 -0.491656 0 -2.77556e-17 -6.4839 -0.436471 -6.78055 -7.5238 
-0.100105 -6.09267 -6.40949 -6.0873 -2.7495 -3.5056 -2.94433 -3.4482 -4.53503 
-5.4831 -5.1024 -3.72529 -3.09375 -3.48612 -1.96574 -2.08167e-17 -2.77556e-17 -0.0679294 
-5.71768 -7.01697 -6.28109 -7.56606 -4.16334e-17 -7.24757 -7.14078 -7.49706 -7.50341 
-0.19616 -1.10545 -2.2399 -1.67974 -2.07933 -1.41543 -1.70011 -2.30575 -3.81272 
-3.29062 -5.15688 -6.4342 0 -0.330407 0 6.93889e-18 -4.16334e-17 -0.154699 
-0.0265366 -2.77556e-17 -7.7397 -8.39458 -7.8052 -8.11991 -7.39132 -7.40628 -6.99212 
-6.85222 0 0 -1.11022e-16 5.55112e-17 -0.396574 0 -2.52939 -2.91251 
-4.38667 0 -8.21697 -8.27378 0 -5.55112e-17 0 -0.0498191 -0.916095 
-1.72977 -2.27264 -4.87765 -3.88329 -5.7447 -6.38576 -8.08478 0 0 
-1.38778e-17 1.38778e-17 0 0 -3.74532 -4.41139 0 0 1.38778e-17 
-5.51097 -1.38778e-17 -8.6903 -6.93889e-18 0 0 -1.7056 -3.19946 -6.29094 
-7.50323 0 0 -3.45785 -1.70171 -1.83193 -1.02178 0 -0.811415 
-2.15705 -3.91344 -4.86574 -3.14954 -2.60386 -0.537916 1.38778e-17 0 -0.0022204 
0 -5.62427 -8.48442 -8.95678 -6.62832 -6.45252 -6.00093 -5.54039 -4.85931 
-7.65723 -8.89503 -8.03688 -8.63365 -7.86516 -7.16585 0 -1.60444 -2.89583 
-4.68541 -0.596732 2.77556e-17 -3.47612 -4.41356 -5.30134 2.77556e-17 -0.908509 -6.64337 
-7.48117 -7.35492 -7.68799 -3.79025 -2.89154 0 -7.80017 -6.6255 -5.89601 
2.77556e-17 -1.81213 -7.23894 -6.95614 -5.124 -6.26114 -1.08202 0 -4.20606 
-3.76326 -3.23594 -4.30863 -3.48238 -5.9705 -5.58802 -6.5278 -6.27207 -7.02786 
-3.3474 -2.77556e-17 -0.75308 -5.55112e-17 -4.21609 -5.19733 -5.28386 -5.12681 -5.59257 
-4.87739 -2.88166 -1.57166 0 -0.0787087 -0.537963 -5.7004 -5.2988 -5.9161 
-5.97808 -2.94717 -4.85932 -4.21092 -4.08864 -3.31507 -2.74689 -4.04462 0 
-2.77556e-17 -0.33453 -5.51593 2.77556e-17 -0.388509 -2.08849 -1.65794 -1.32068 -1.94265 
-5.19041 -4.95054 5.55112e-17 -3.54207 -5.04636 -1.25243 -0.320704 -0.85639 0 
0 -4.39542 -4.59636 0 5.55112e-17 -4.26546 -4.69421 -4.47622 -4.20772 
1.11022e-16 5.55112e-17 -1.85798 -3.98963 -4.01006 -3.69734 -3.57717 -2.51686 -2.98223 
-3.1644 -2.23204 -1.75919 -0.169076 -4.38509 -4.15738 -1.83408 0 -4.80339 
-4.74418 -1.06737 -4.57151 -4.30898 -3.60288 -8.32667e-17 -2.55009 -4.82686 -3.84621 
-3.39793 -0.317556 -3.95911 -2.83705 -3.48797 -1.24462 -8.32667e-17 -1.4833 -3.07059 
-2.99196 -5.20417e-17 -6.59195e-17 5.55112e-17 -1.63941 -3.43222 -3.52273 -2.93764 -2.77556e-17 
0 -5.20417e-18 -2.06512 -3.9493 -4.42991 -4.20279 -3.34731 -4.35959 -3.77679 
-4.32311 -4.06307 -4.18756 -3.78174 -3.789 -3.18373 -3.66677 -1.63669 -2.65721 
-2.55754 -2.79315 -3.23795 -3.33517 -3.08182 -2.82313 -2.97846 -3.29597e-17 -0.713382 
-0.736182 -1.81189 -2.23453 -5.55112e-17 -1.93117 -2.85575 -3.94587 -3.19904 -4.05025 
-2.39922 -2.14491 -1.11022e-16 -1.20917 -2.77556e-17 -3.33931 -1.29278 -3.28877 -2.31734 
-1.55604 -1.85884 -2.28248 -1.48994 -3.19986 -2.01712 -2.73043 -3.22263 -2.48763 
-0.720264 -0.676801 -1.28143 -1.14271 -1.47345 -0.959518 -2.83723 -3.4316 -3.24678 
-2.93014 2.77556e-17 -0.216958 -0.58456 -2.77556e-17 -2.58099 -0.880241 0 -5.55112e-17 
-0.507777 -0.260818 -2.3103 -3.17302 0 5.55112e-17 -1.97193 -1.78831 -1.75833 
-1.64786 -1.00442 0 0 -1.20683 -2.79457 -2.48633 -2.03059 -2.03382 
-0.66623 -0.528577 2.77556e-17 -2.70154 -1.58506 -0.614759 -2.14418 -1.86205 -1.78109 
-1.40527 -1.42717 -1.10458 8.32667e-17 5.55112e-17 -0.214784 -2.43796 -1.69393 -0.747652 
-1.13205 -1.13657 -0.629997 -2.08244 -1.92387 -1.7788 -1.50425 -1.01758 -1.08235 
-1.23831 -0.431972 -0.438013 0 -1.21433 -1.11022e-16 -2.0234 -0.373205 -2.10618 
-0.965058 -2.36517 -0.913013 -0.221092 -0.360733 -0.0997014 1.38778e-17 -0.0916098 -0.126545 
6.93889e-18 0 0 -1.79089 -0.767839 -0.341141 -0.622595 0 -2.77556e-17 
-0.0610764 -2.37816 -2.49869 -2.36752 -2.24484 -0.0781908 -2.5645 -2.14086 -0.942081 
-6.93889e-18 -0.47703 -5.55112e-17 -1.97606 -1.79724 -1.6809 -2.33469 -1.45402 3.46945e-18 
-8.67362e-19 -2.00857 -0.752879 -1.06643 -0.727413 -1.92966 -0.112686 -0.271187 -0.332892 
-1.63802 -3.46945e-18 -1.35255 -1.48756 -1.00359 -1.17541 -1.32123 -1.39126 -0.58255 
-0.447942 -3.46945e-18 0 -1.96062 -1.52864 1.38778e-17 -0.0514502 -0.965435 -1.92823 
-1.97543 -0.293851 0 -0.624402 -1.69808 -1.88155 -1.12462 0 5.55112e-17 
-0.578681 -0.36465 -6.93889e-18 -1.94751 -1.44427 -0.0848697 -0.885587 -5.55112e-17 6.93889e-18 
-2.17748 -2.12192 -1.65308 -5.55112e-17 -0.954315 -2.33516 -2.0181 -1.38031 -2.22488 
-2.18466 -0.808754 -0.319838 -1.50289 -2.3361 -1.56456 -0.724346 -2.2978 -2.14243 
-6.93889e-18 0 -0.0969562 0 -1.38778e-17 0 -0.0800219 -2.60624 -2.41164 
-0.629799 -1.71012 -1.20649 -1.08213 -0.521533 0 -0.94589 -0.257375 -0.162743 
0 -2.32447 0 -1.38778e-17 -0.433249 -1.11022e-16 0 0 -2.34446 
1.38778e-17 0 -0.149741 0 -0.0462048 2.77556e-17 -1.38778e-17 -0.280095 0 
0 -0.0926657 1.38778e-17 -0.141359 -5.55112e-17 -1.33804 -1.63594 -1.9466 -2.77556e-17 
-2.4337 -0.433501 -1.0362 -1.07486 0 8.32667e-17 1.11022e-16 -2.13152 -2.30589 
-2.36659 -2.16753 -2.09477 -2.14863 1.38778e-17 -0.635662 -2.30248 -1.93968 -2.07574 
-1.57006 -1.31527 -1.39101 -1.36633 -1.17112 -2.77556e-17 -1.6382 -2.4832 -2.05983 
-1.87081 -1.26297 -1.20107 -0.75296 -0.968543 -0.57969 0 -4.16334e-17 -0.819782 
-0.518327 -1.26135 -0.959953 -2.77556e-17 -2.33998 -2.11327 -1.73914 -1.58072 -4.16334e-17 
-2.77556e-17 -0.664415 -1.15276 -1.10375 -0.873427 -0.575628 -0.43528 -0.288481 -0.312298 
-0.36314 -0.119735 -1.48765 0 -0.253945 -0.611946 -0.255088 -0.045426 -2.04394 
0 -3.46945e-18 -2.30472 -2.24382 -1.39551 -0.793397 -1.70653 -2.91801 -0.362532 
6.93889e-18 -3.46945e-18 -3.46945e-18 -0.0246076 -0.759954 -2.08167e-17 -0.434004 -1.73472e-18 -0.512296 
-1.17119 -0.973987 4.85723e-17 -1.17331 -2.77556e-17 -2.77556e-17 -0.219201 -2.49299 -2.515 
2.77556e-17 -2.77556e-17 -0.323911 0 -3.46945e-17 -0.657968 -0.559907 -2.08167e-17 -2.60209e-17 
-0.240735 -1.38778e-17 -0.895025 -1.03778 -0.649613 -1.06804 -2.50146 -1.38778e-17 0 
-0.102053 -0.428436 -0.646908 -0.445816 -0.852391 -3.13744 -2.94385 -2.73958 -2.72633 
-1.21924 -0.869449 -0.895648 0 -0.514609 0 2.77556e-17 -0.394226 -6.93889e-18 
-0.784831 -0.603359 -2.28205 -2.20249 -1.30835 -1.53165 5.55112e-17 0 0 
-0.0579547 -0.330801 -1.73532 -1.47901 -1.06849 -0.570001 -0.299339 -1.38005 -1.58021 
-1.68477 0 -1.11022e-16 0 -2.66473 -3.04156 -2.15588 -1.96909 -2.15941 
-1.9004 -1.74694 -0.955291 -1.01275 -1.43977 -1.10072 0 0 -0.0955087 
-1.53747 -2.02615 -1.06051 -1.14628 -1.15637 -1.42178 -1.39881 -0.811037 -1.4182 
-1.16742 -1.75901 -0.908351 -0.679664 -0.795978 -1.08367 -1.88342 -2.17741 -1.26193 
-2.69033 -1.91978 0 -1.82465 -0.878688 -0.955497 -0.639252 -5.55112e-17 -0.912702 
-1.70428 -1.88877 -2.63216 -1.66476 -1.70726 -2.16253 -1.66245 -2.24013 0 
-3.65621 -2.68184 -2.34399 -2.11351 -2.41086 0 -2.36111 2.77556e-17 -3.23973 
-5.55112e-17 -1.95895 -3.33952 -1.53775 -2.06403 -1.18948 -1.09044 -2.55005 -2.29854 
-3.26028 0 0 -0.271315 -2.90592 -4.24078 -2.75227 -6.93889e-18 -3.46945e-18 
-0.0427242 0 -3.6422 2.77556e-17 -3.13934 0 -1.32076 -4.08412 0 
-0.644354 -2.93043 -3.59131 -1.83455 -0.721865 -1.11022e-16 -1.11022e-16 -1.95154 -1.11022e-16 
-3.16365 -0.934538 -3.32944 -3.67377 -2.63474 0 -3.7886 -3.72597 -2.47463 
-4.04091 -4.09638 -3.51411 -3.34018 2.77556e-17 0 -5.55112e-17 -2.58795 -2.03062 
-2.58522 -4.07539 -4.36811 -2.37075 -4.10682 -3.76506 -3.07497 -4.20202 -4.17784 
-3.39786 0 2.22045e-16 -1.11022e-16 -1.71344 -4.33717 -3.93966 -3.14169 -3.87697 
-3.33187 -1.11022e-16 -1.11022e-16 -4.03983 -3.83967 -3.37977 -3.46892 -3.57405 -3.4784 
-3.9375 -3.88218 -2.47381 -3.33162 -4.45543 -4.70463 -4.24798 -3.61582 -2.74687 
-1.77907 0 5.55112e-17 -1.17114 0 -3.62501 -4.87428 -3.87345 -4.1332 
-1.38778e-17 -0.114722 -3.55255 -2.77556e-17 1.11022e-16 -1.6633 -2.50744 -3.56234 -4.8116 
-4.83693 -4.8057 -4.71642 -4.22948 -4.24786 -2.78618 -3.44484 -2.77556e-17 -0.823291 
0 -4.0276 -3.43015 -5.55112e-17 -1.05973 -3.94458 -3.35025 -3.17415 -2.29414 
-4.36393 -5.7722 -4.51895 -5.55112e-17 0 -1.05556 1.38778e-17 -0.672763 0 
-3.90972 5.55112e-17 -1.66982 -3.90771 -3.27751 8.32667e-17 5.55112e-17 -1.17611 -5.32943 
-4.7451 -8.32667e-17 -2.0384 -1.61049 -2.07113 -3.14255 -3.06523 -4.41229 -3.02486 
-3.11769 -2.68557 -3.52719 -2.55275 -1.58301 -5.62842 -2.03988 -5.13397 -4.08585 
-3.52345 -3.73024 -4.26475 -4.17108 -4.36936 -4.93046 -4.34979 -5.24619 -5.01776 
-5.31772 -4.75598 -5.51015 -4.76165 -5.14304 -5.80985 -5.50069 -3.94935 -4.443 
-4.8678 -3.5285 -3.67685 -1.84229 -4.99493 -5.05924 -5.4033 -5.0183 -0.971988 
-0.152552 -1.38778e-17 0 -5.00223 -8.32667e-17 -2.77556e-17 -2.25122 0 -4.3995 
5.55112e-17 0 -0.35469 -0.462445 0 -1.1459 -5.53771 -5.84197 -2.77556e-17 
0 -5.77832 -5.18084 -4.32144 -4.60947 -3.85099 -2.2636 -3.16256 -2.33815 
-4.45231 -6.32412 -5.62328 -5.43196 -5.37952 -4.29058 -3.66447 -5.8755 0 
5.55112e-17 -0.583342 -5.93133 -5.69566 -5.00483 -2.65468 -1.98929 -2.9736 -3.37253 
-4.95325 -5.73551 -4.20758 0 -0.336761 -3.89948 -4.44839 -6.04052 -6.02608 
-4.67705 -4.83199 -5.8372 -5.16465 -4.96364 -5.06524 -4.07979 -6.41056 -3.87662 
-0.828354 0 1.38778e-17 -0.146914 0 -1.11022e-16 -5.24331 -6.76424 -5.77521 
-6.08125 -7.06045 -0.574709 -6.31968 -4.97882 -4.32315 -3.12209 5.55112e-17 -3.25045 
-2.8456 -0.248519 2.77556e-17 1.11022e-16 -1.48673 -6.46209 -6.47845 -0.732492 -6.63375 
-6.73263 -5.68796 -3.88822 0 2.77556e-17 -0.299304 0 0 -0.181307 
-0.94213 -5.55112e-17 -2.18419 2.77556e-17 -1.22561 0 -1.88407 -3.9908 -7.15649 
-6.85386 -3.56972 -1.51658 -6.53118 -5.71441 -5.00616 -4.39783 -4.26324 -1.80282 
0 -1.11022e-16 -5.55112e-17 -0.310649 -4.20891 -6.30453 -5.45466 -6.89154 -7.6879 
-7.4847 -6.36514 -6.85897 -6.14561 -7.7952 -5.03313 -2.80626 -0.190039 -2.95627 
-2.73417 -7.79901 -8.1401 -3.56876 -5.39683 -4.42076 0 0 0 
0 2.77556e-17 0 -7.03522 0 -7.14669 -7.88881 -7.6075 -7.17537 
-8.15184 -8.3863 -5.4288 -3.68046 0 -6.90292 -5.5812 -5.77328 -1.11022e-16 
-5.55112e-17 -8.21412 -6.53551 -8.5891 -6.41962 -7.37967 -7.98143 -6.25482 -5.50559 
-5.83647 -1.88739 -8.35997 -8.01372 -8.51746 -8.33297 0 0 -8.09126 
-7.17474 -8.41176 -8.60714 -8.61888 -6.19911 -3.84499 -5.17235 -4.41429 -4.23112 
5.55112e-17 -1.84335 -7.77829 -7.42508 -6.44195 -6.24764 -3.46636 -2.72833 2.77556e-17 
-0.251361 -5.15634 -5.65307 -2.77556e-17 -5.55112e-17 -1.59082 0 0 -0.211326 
1.11022e-16 -2.01968 -3.78537 -4.16334e-17 -2.77556e-17 -0.680664 -0.798743 1.38778e-17 
